% Model:              E_field_model_symetry_rad_el.mph
% Version:            COMSOL 5.4.0.388
% Date:               Mar 22 2020, 13:09
% Dimension:          1
% Nodes:              50000
% Expressions:        1
% Description:        
% cln1x                   Term1.Ez/1000 (V/m)
2.0E-5                    -0.005468182531902982
6.0E-5                    -0.005198003895635784
1.0E-4                    -0.004927882617576935
1.4E-4                    -0.00465781869772632
1.8E-4                    -0.0043878121360836925
2.2E-4                    -0.004117862932649525
2.6E-4                    -0.0038479710874233784
3.0E-4                    -0.0035781366004054727
3.4E-4                    -0.0033083594715958412
3.8E-4                    -0.0030386397009943443
4.2E-4                    -0.0027689772886010473
4.6E-4                    -0.0024993722344160236
5.0E-4                    -0.0022298245384391696
5.4E-4                    -0.0019603342006704197
5.8E-4                    -0.0016909012211100234
6.2E-4                    -0.0014215255997576742
6.6E-4                    -0.0011522073366137236
7.0E-4                    -8.829464316777683E-4
7.4E-4                    -6.137428849502717E-4
7.8E-4                    -3.4459669643075786E-4
8.2E-4                    -7.550786611953327E-5
8.6E-4                    1.9352360598343948E-4
9.0E-4                    4.624977198783065E-4
9.4E-4                    7.314144755648736E-4
9.8E-4                    0.0010002738730434026
0.00102                   0.0012690759123136263
0.00106                   0.0015378205933755645
0.0011                    0.0018065079162293664
0.00114                   0.002075137880874981
0.00118                   0.0023437104873123217
0.00122                   0.0026122257355416
0.00126                   0.0028806836255625867
0.0013                    0.0031490841573754698
0.00134                   0.003417427330980021
0.00138                   0.0036857131463763613
0.00142                   0.0039539416035645186
0.00146                   0.004222112702544585
0.0015                    0.004490226443316319
0.00154                   0.004758282825879849
0.00158                   0.005026281850235309
0.00162                   0.005294223516382516
0.00166                   0.005562107824321314
0.0017                    0.005829934774052081
0.00174                   0.006097704365574693
0.00178                   0.0063654165988890204
0.00182                   0.006633071473995223
0.00186                   0.00690066899089316
0.0019                    0.007168209149582924
0.00194                   0.007435691950064381
0.00198                   0.007703117392337759
0.00202                   0.00797048547640288
0.00206                   0.008237796202259895
0.0021                    0.008505049569908513
0.00214                   0.00877224557934912
0.00218                   0.009039384230581309
0.00222                   0.009306465523605516
0.00226                   0.009573489458421444
0.0023                    0.009840456035029043
0.00234                   0.010107365253428587
0.00238                   0.01037421711361994
0.00242                   0.010641011615602939
0.00246                   0.010907748759377927
0.0025                    0.011174428544944586
0.00254                   0.01144105097230308
0.00258                   0.011707616041453315
0.00262                   0.011974123752395387
0.00266                   0.012240574105129302
0.0027                    0.012506967099654945
0.00274                   0.01277330273597249
0.00278                   0.013039581014081689
0.00282                   0.013305801933982796
0.00286                   0.013571965495675636
0.0029                    0.013838071699160301
0.00294                   0.01410412054443667
0.00298                   0.014370112031504944
0.00302                   0.014636046160365046
0.00306                   0.014901922931016906
0.0031                    0.015167742343460478
0.00314                   0.015433504397695903
0.00318                   0.01569920909372319
0.00322                   0.015964856431542152
0.00326                   0.01623044641115297
0.0033                    0.016495979032555678
0.00334                   0.01676145429575007
0.00338                   0.01702687220073622
0.00342                   0.017292232747514184
0.00346                   0.017557535936084064
0.0035                    0.01782278176644568
0.00354                   0.01808797023859904
0.00358                   0.018353101352544223
0.00362                   0.018618175108281218
0.00366                   0.018883191505810044
0.0037                    0.01914815054513072
0.00374                   0.019413052226243007
0.00378                   0.019677896549147124
0.00382                   0.019942683513843155
0.00386                   0.020207413120330864
0.0039                    0.02047208536861049
0.00394                   0.02073670025868179
0.00398                   0.021001257790545003
0.00402                   0.021265757964200004
0.00406                   0.021530200779646687
0.0041                    0.02179458623688523
0.00414                   0.022058914335915565
0.00418                   0.022323185076737685
0.00422                   0.02258739845935162
0.00426                   0.02285155448375735
0.0043                    0.02311565314995495
0.00434                   0.023379694457944224
0.00438                   0.02364367840772537
0.00442                   0.023907604999298365
0.00446                   0.024171474232663036
0.0045                    0.024435286107819504
0.00454                   0.02469904062476789
0.00458                   0.02496273778350787
0.00462                   0.025226377584039946
0.00466                   0.02548996002636354
0.0047                    0.025753485110478955
0.00474                   0.026016952836386303
0.00478                   0.026280363204085378
0.00482                   0.026543716213576242
0.00486                   0.02680701186485901
0.0049                    0.027070250157933413
0.00494                   0.027333431092799784
0.00498                   0.02759655466945785
0.00502                   0.027859620887907666
0.00506                   0.028122629748149344
0.0051                    0.028385581250182826
0.00514                   0.028648475394008045
0.00518                   0.028911312179625146
0.00522                   0.029174091607033992
0.00526                   0.02943681367623463
0.0053                    0.029699478387226974
0.00534                   0.029962085740011232
0.00538                   0.030224635734587304
0.00542                   0.030487128370955238
0.00546                   0.030749563649114745
0.0055                    0.031011941569066195
0.00554                   0.03127426213080937
0.00558                   0.0315365253343444
0.00562                   0.03179873117967124
0.00566                   0.03206087966678989
0.0057                    0.03232297079570024
0.00574                   0.03258500456640258
0.00578                   0.03284698097889649
0.00582                   0.03310890003318224
0.00586                   0.03337076172925986
0.0059                    0.03363256606712925
0.00594                   0.033894313046790435
0.00598                   0.034156002668243486
0.00602                   0.03441763493148824
0.00606                   0.03467920983652489
0.0061                    0.034940727383353146
0.00614                   0.03520218757197331
0.00618                   0.03546359040238529
0.00622                   0.03572493587458903
0.00626                   0.03598622398858458
0.0063                    0.03624745474437197
0.00634                   0.036508628141951216
0.00638                   0.03676974418132216
0.00642                   0.0370308028624849
0.00646                   0.03729180418543937
0.0065                    0.03755274815018576
0.00654                   0.03781363475672382
0.00658                   0.038074464005053814
0.00662                   0.03833523589517553
0.00666                   0.03859595042708902
0.0067                    0.03885660760079435
0.00674                   0.03911720741629152
0.00678                   0.039377749873580364
0.00682                   0.03963823497266105
0.00686                   0.039898662713533595
0.0069                    0.040159033096197866
0.00694                   0.04041934612065403
0.00698                   0.040679601786901914
0.00702                   0.040939800094941546
0.00706                   0.041199941044773085
0.0071                    0.041460024636396364
0.00714                   0.04172005086981147
0.00718                   0.04198001974501832
0.00722                   0.04223993126201694
0.00726                   0.042499785420807505
0.0073                    0.04275958222138976
0.00734                   0.043019321663763786
0.00738                   0.043279003747929694
0.00742                   0.0435386284738873
0.00746                   0.04379819584163681
0.0075                    0.04405770585117804
0.00754                   0.04431715850251106
0.00758                   0.04457655379563594
0.00762                   0.04483589173055262
0.00766                   0.04509517230726102
0.0077                    0.045354395525761176
0.00774                   0.04561356138605331
0.00778                   0.045872669888137096
0.00782                   0.046131721032012685
0.00786                   0.04639071481768009
0.0079                    0.04664965124513935
0.00794                   0.04690853031439038
0.00798                   0.04716735202543315
0.00802                   0.04742611637826782
0.00806                   0.047684823372894154
0.0081                    0.047943473009312364
0.00814                   0.04820206528752235
0.00818                   0.04846060020752411
0.00822                   0.04871907776931769
0.00826                   0.048977497972903176
0.0083                    0.049235860818280304
0.00834                   0.04949416630544926
0.00838                   0.04975241443441008
0.00842                   0.05001060520516261
0.00846                   0.050268738617707004
0.0085                    0.0505268146720432
0.00854                   0.05078483336817111
0.00858                   0.05104279470609093
0.00862                   0.0513006986858024
0.00866                   0.05155854530730578
0.0087                    0.051816334570600926
0.00874                   0.052074066475687845
0.00878                   0.05233174102256656
0.00882                   0.052589358211237155
0.00886                   0.05284691804169952
0.0089                    0.05310442051395361
0.00894                   0.05336186562799958
0.00898                   0.053619253383837266
0.00902                   0.05387658378146681
0.00906                   0.05413385682088807
0.0091                    0.05439107250210118
0.00914                   0.0546482308251061
0.00918                   0.05490533178990282
0.00922                   0.05516237539649129
0.00926                   0.055419361644871566
0.0093                    0.05567629053504375
0.00934                   0.05593316206700752
0.00938                   0.056189976240763266
0.00942                   0.05644673305631072
0.00946                   0.05670343251365005
0.0095                    0.05696007461278114
0.00954                   0.057216659353704034
0.00958                   0.05747318673641868
0.00962                   0.05772965676092515
0.00966                   0.057986069427223334
0.0097                    0.05824242473531349
0.00974                   0.05849872268519523
0.00978                   0.05875496327686898
0.00982                   0.05901114651033444
0.00986                   0.059267272385591555
0.0099                    0.05952334090264066
0.00994                   0.05977935206148152
0.00998                   0.06003530586211414
0.01002                   0.060291202304538556
0.01006                   0.060547041388754795
0.0101                    0.06080282311476282
0.01014                   0.061058547482562654
0.01018                   0.06131421449215424
0.01022                   0.06156982414353766
0.01026                   0.06182537643671293
0.0103                    0.062080871371679856
0.01034                   0.06233630894843875
0.01038                   0.06259168916698929
0.01042                   0.06284701202733169
0.01046                   0.06310227752946589
0.0105                    0.0633574856733919
0.01054                   0.0636126364591097
0.01058                   0.06386772988661923
0.01062                   0.06412276595592059
0.01066                   0.06437774466701375
0.0107                    0.06463266601989875
0.01074                   0.06488753001457552
0.01078                   0.06514233665104405
0.01082                   0.06539708592930446
0.01086                   0.06565177784935657
0.0109                    0.06590641241120059
0.01094                   0.06616098961483634
0.01098                   0.06641550946026384
0.01102                   0.06666997194748317
0.01106                   0.06692437707649429
0.0111                    0.06717872484729728
0.01114                   0.06743301525989198
0.01118                   0.06768724831427853
0.01122                   0.06794142401045683
0.01126                   0.06819554234842695
0.0113                    0.06844960332818886
0.01134                   0.06870360694974258
0.01138                   0.06895755321308807
0.01142                   0.0692114421182254
0.01146                   0.06946527366515452
0.0115                    0.06971904785387541
0.01154                   0.06997276468438808
0.01158                   0.07022642415669261
0.01162                   0.07048002627078889
0.01166                   0.07073357102667699
0.0117                    0.07098705842435687
0.01174                   0.07124048846382852
0.01178                   0.07149386114509201
0.01182                   0.07174717646814728
0.01186                   0.07200043443299436
0.0119                    0.07225363503963325
0.01194                   0.07250677828806386
0.01198                   0.0727598641782863
0.01202                   0.07301289271030059
0.01206                   0.07326586388410666
0.0121                    0.07351877769970448
0.01214                   0.07377163415709412
0.01218                   0.07402443325627557
0.01222                   0.07427717499724885
0.01226                   0.07452985938001383
0.0123                    0.07478248640457069
0.01234                   0.07503505607091933
0.01238                   0.07528756837905975
0.01242                   0.07554002332899193
0.01246                   0.07579242092071592
0.0125                    0.07604476115423178
0.01254                   0.07629704402953941
0.01258                   0.07654926954663883
0.01262                   0.07680143770552995
0.01266                   0.07705354850621296
0.0127                    0.07730560194868778
0.01274                   0.07755759803295438
0.01278                   0.07780953675901275
0.01282                   0.07806141812686289
0.01286                   0.07831324213650492
0.0129                    0.07856500878793866
0.01294                   0.07881671808116429
0.01298                   0.07906837001618165
0.01302                   0.07931996459299083
0.01306                   0.07957150181159184
0.0131                    0.07982298167198458
0.01314                   0.0800744041741691
0.01318                   0.08032576931814546
0.01322                   0.08057707710391361
0.01326                   0.0808283275314736
0.0133                    0.08107952060082528
0.01334                   0.08133065631196887
0.01338                   0.08158173466490422
0.01342                   0.08183275565963131
0.01346                   0.08208371929615026
0.0135                    0.08233462557446097
0.01354                   0.08258547449456351
0.01358                   0.08283626605645784
0.01362                   0.08308700026014391
0.01366                   0.08333767710562183
0.0137                    0.08358829659289152
0.01374                   0.08383885872195308
0.01378                   0.08408936349280635
0.01382                   0.08433981090545144
0.01386                   0.08459020095988835
0.0139                    0.08484053365611706
0.01394                   0.08509080899413751
0.01398                   0.08534102697394982
0.01402                   0.08559118759555388
0.01406                   0.08584129085894976
0.0141                    0.08609133676413742
0.01414                   0.08634132531111692
0.01418                   0.08659125649988818
0.01422                   0.08684113033045128
0.01426                   0.0870909468028061
0.0143                    0.08734070591695277
0.01434                   0.08759040767289121
0.01438                   0.08784005207062147
0.01442                   0.0880896391101435
0.01446                   0.08833916879145735
0.0145                    0.08858864111456301
0.01454                   0.08883805607946044
0.01458                   0.08908741368614964
0.01462                   0.08933671393463066
0.01466                   0.08958595682490343
0.0147                    0.08983514235696809
0.01474                   0.09008427053082452
0.01478                   0.09033334134647276
0.01482                   0.09058235480391276
0.01486                   0.09083131090314459
0.0149                    0.09108020964416816
0.01494                   0.09132905102698358
0.01498                   0.09157783505159073
0.01502                   0.09182656171798977
0.01506                   0.09207523102618055
0.0151                    0.09232384297616318
0.01514                   0.09257239756793756
0.01518                   0.09282089480150366
0.01522                   0.09306933467686168
0.01526                   0.0933177171940114
0.0153                    0.09356604235295293
0.01534                   0.09381431015368635
0.01538                   0.09406252059621155
0.01542                   0.09431067368052849
0.01546                   0.09455876940663724
0.0155                    0.09480680777453782
0.01554                   0.09505478878423007
0.01558                   0.09530271243571427
0.01562                   0.09555057872899028
0.01566                   0.09579838766405792
0.0157                    0.09604613924091752
0.01574                   0.09629383345956882
0.01578                   0.09654147032001195
0.01582                   0.09678904982224694
0.01586                   0.09703657196627363
0.0159                    0.09728403675209213
0.01594                   0.09753144417970241
0.01598                   0.09777879424910456
0.01602                   0.09802608696029837
0.01606                   0.09827332231328412
0.0161                    0.09852050030806164
0.01614                   0.09876762094463087
0.01618                   0.09901468422299202
0.01622                   0.09926169014314487
0.01626                   0.09950863870508958
0.0163                    0.09975552990882605
0.01634                   0.10000236375435437
0.01638                   0.10024914024167442
0.01642                   0.1004958593707863
0.01646                   0.10074252114168997
0.0165                    0.10098912555438543
0.01654                   0.10123567260887269
0.01658                   0.10148216230515174
0.01662                   0.10172859464322255
0.01666                   0.10197496962308526
0.0167                    0.10222128724473968
0.01674                   0.10246754750818592
0.01678                   0.10271375041342393
0.01682                   0.10295989596045378
0.01686                   0.10320598414927545
0.0169                    0.10345201497988882
0.01694                   0.10369798845229407
0.01698                   0.10394390456649107
0.01702                   0.10418976332247995
0.01706                   0.1044355647202605
0.0171                    0.10468130875983295
0.01714                   0.10492699544119707
0.01718                   0.10517262476435317
0.01722                   0.10541819672930097
0.01726                   0.10566371133604052
0.0173                    0.10590916858457192
0.01734                   0.10615456847489511
0.01738                   0.10639991100701011
0.01742                   0.10664519618091692
0.01746                   0.10689042399661544
0.0175                    0.10713559445410586
0.01754                   0.107380707553388
0.01758                   0.10762576329446193
0.01762                   0.10787076167732772
0.01766                   0.10811570270198526
0.0177                    0.10836058636843462
0.01774                   0.10860541267667578
0.01778                   0.1088501816267088
0.01782                   0.10909489321853345
0.01786                   0.10933954745215005
0.0179                    0.10958414432755838
0.01794                   0.10982868384475852
0.01798                   0.11007316600375047
0.01802                   0.11031759080453414
0.01806                   0.11056195824710972
0.0181                    0.11080626833147703
0.01814                   0.11105052105763617
0.01818                   0.11129471642558708
0.01822                   0.11153885443532979
0.01826                   0.1117829350868643
0.0183                    0.11202695838019058
0.01834                   0.11227092431530872
0.01838                   0.1125148328922186
0.01842                   0.11275868411092026
0.01846                   0.11300247797141379
0.0185                    0.11324621447369905
0.01854                   0.11348989361777616
0.01858                   0.11373351540364497
0.01862                   0.11397707983130567
0.01866                   0.11422058690075823
0.0187                    0.11446403661200251
0.01874                   0.1147074289650385
0.01878                   0.11495076395986638
0.01882                   0.11519404159648605
0.01886                   0.11543726187489746
0.0189                    0.1156804247951008
0.01894                   0.11592353035709584
0.01898                   0.11616657856088262
0.01902                   0.11640956940646126
0.01906                   0.11665250289383174
0.0191                    0.11689537902299399
0.01914                   0.117138197793948
0.01918                   0.11738095920669378
0.01922                   0.1176236632612315
0.01926                   0.11786630995756087
0.0193                    0.11810889929568208
0.01934                   0.11835143127559512
0.01938                   0.11859390589729996
0.01942                   0.11883632316079654
0.01946                   0.119078683066085
0.0195                    0.11932098561316515
0.01954                   0.11956323080203712
0.01958                   0.11980541863270097
0.01962                   0.12004754910515651
0.01966                   0.12028962221940392
0.0197                    0.12053163797544308
0.01974                   0.12077359637327409
0.01978                   0.12101549741289686
0.01982                   0.12125734109431137
0.01986                   0.12149912741751774
0.0199                    0.1217408563825159
0.01994                   0.12198252798930584
0.01998                   0.1222241422378877
0.02002                   0.12246569912826118
0.02006                   0.12270719866042658
0.0201                    0.12294864083438373
0.02014                   0.12319002565013264
0.02018                   0.12343135310767336
0.02022                   0.12367262320700594
0.02026                   0.12391383594813028
0.0203                    0.1241549913310464
0.02034                   0.12439608935575436
0.02038                   0.12463713002225404
0.02042                   0.1248781133305456
0.02046                   0.12511903928062887
0.0205                    0.12535990787250406
0.02054                   0.12560071910617088
0.02058                   0.12584147298162968
0.02062                   0.12608216949888013
0.02066                   0.1263228086579224
0.0207                    0.12656339045875653
0.02074                   0.12680391490138238
0.02078                   0.1270443819858001
0.02082                   0.1272847917120096
0.02086                   0.12752514408001084
0.0209                    0.12776543908980392
0.02094                   0.12800567674138877
0.02098                   0.12824585703476551
0.02102                   0.128485979969934
0.02106                   0.12872604554689418
0.0211                    0.1289660537656463
0.02114                   0.1292060046261901
0.02118                   0.1294458981285258
0.02122                   0.12968573427265323
0.02126                   0.12992551305857253
0.0213                    0.13016523448628353
0.02134                   0.13040489855578638
0.02138                   0.13064450526708105
0.02142                   0.13088405462016742
0.02146                   0.1311235466150457
0.0215                    0.13136298125171567
0.02154                   0.1316023585301775
0.02158                   0.13184167845043107
0.02162                   0.13208094101247647
0.02166                   0.1323201462163137
0.0217                    0.13255929406194278
0.02174                   0.13279838454936357
0.02178                   0.13303741767857616
0.02182                   0.13327639344958048
0.02186                   0.13351531186237678
0.0219                    0.13375417291696473
0.02194                   0.13399297661334458
0.02198                   0.1342317229515161
0.02202                   0.13447041193147954
0.02206                   0.13470904355323468
0.0221                    0.13494761781678163
0.02214                   0.1351861347221204
0.02218                   0.13542459426925094
0.02222                   0.1356629964581733
0.02226                   0.1359013412888875
0.0223                    0.1361396287613934
0.02234                   0.13637785887569123
0.02238                   0.13661603163178074
0.02242                   0.13685414702966217
0.02246                   0.13709220506933517
0.0225                    0.13733020575080013
0.02254                   0.13756814907405693
0.02258                   0.13780603503910543
0.02262                   0.13804386364594579
0.02266                   0.13828163489457784
0.0227                    0.13851934878500183
0.02274                   0.13875700531721752
0.02278                   0.13899460449122503
0.02282                   0.13923214630702435
0.02286                   0.13946963076461538
0.0229                    0.13970705786399834
0.02294                   0.13994442760517303
0.02298                   0.14018173998813951
0.02302                   0.14041899501289776
0.02306                   0.14065619267944798
0.0231                    0.14089333298778978
0.02314                   0.14113041593792347
0.02318                   0.14136744152984898
0.02322                   0.14160440976356628
0.02326                   0.1418413206390753
0.0233                    0.14207817415637616
0.02334                   0.14231497031546883
0.02338                   0.1425517091163533
0.02342                   0.1427883905590295
0.02346                   0.14302501464349765
0.0235                    0.14326158136975745
0.02354                   0.1434980907378091
0.02358                   0.14373454274765254
0.02362                   0.14397093739928785
0.02366                   0.14420727469271483
0.0237                    0.14444355462793362
0.02374                   0.14467977720494427
0.02378                   0.1449159424237467
0.02382                   0.14515205028434092
0.02386                   0.14538810078672698
0.0239                    0.14562409393090478
0.02394                   0.14586002971687442
0.02398                   0.1460959081446358
0.02402                   0.14633172921418905
0.02406                   0.14656749292553398
0.0241                    0.1468031992786708
0.02414                   0.14703884827359934
0.02418                   0.1472744399103198
0.02422                   0.14750997418883197
0.02426                   0.14774545110913592
0.0243                    0.14798087067123178
0.02434                   0.14821623287511929
0.02438                   0.14845153772079872
0.02442                   0.14868678520826983
0.02446                   0.14892197533753285
0.0245                    0.14915710810858762
0.02454                   0.14939218352143413
0.02458                   0.14962720157607248
0.02462                   0.14986216227250265
0.02466                   0.15009706561072458
0.0247                    0.15033191159073833
0.02474                   0.1505667002125439
0.02478                   0.1508014314761412
0.02482                   0.1510361053815303
0.02486                   0.15127072192871127
0.0249                    0.15150528111768402
0.02494                   0.1517397829484486
0.02498                   0.15197422742100478
0.02502                   0.15220861453535298
0.02506                   0.15244294429149283
0.0251                    0.1526772166894246
0.02514                   0.15291143172914812
0.02518                   0.15314558941066345
0.02522                   0.15337968973397048
0.02526                   0.1536137326990694
0.0253                    0.15384771830596009
0.02534                   0.15408164655464263
0.02538                   0.1543155174451169
0.02542                   0.15454933097738294
0.02546                   0.15478308715144076
0.0255                    0.15501678596729052
0.02554                   0.15525042742493197
0.02558                   0.15548401152436528
0.02562                   0.1557175382655903
0.02566                   0.1559510076486072
0.0257                    0.15618441967341581